+ 0 0 6 tcp 40 ------- 1 0.0 16.0 0 0
- 0 0 6 tcp 40 ------- 1 0.0 16.0 0 0
+ 0 1 6 tcp 40 ------- 2 1.0 17.0 0 1
- 0 1 6 tcp 40 ------- 2 1.0 17.0 0 1
+ 0 2 6 tcp 40 ------- 3 2.0 18.0 0 2
- 0 2 6 tcp 40 ------- 3 2.0 18.0 0 2
+ 0 3 6 tcp 5000 ------- 4 3.0 19.0 0 3
- 0 3 6 tcp 5000 ------- 4 3.0 19.0 0 3
+ 0 4 6 tcp 40 ------- 5 4.0 20.0 0 4
- 0 4 6 tcp 40 ------- 5 4.0 20.0 0 4
+ 0 5 6 tcp 40 ------- 6 5.0 21.0 0 5
- 0 5 6 tcp 40 ------- 6 5.0 21.0 0 5
+ 0 7 12 cbr 1000 ------- 0 7.0 23.0 0 6
- 0 7 12 cbr 1000 ------- 0 7.0 23.0 0 6
+ 0 8 12 cbr 1000 ------- 0 8.0 24.0 0 7
- 0 8 12 cbr 1000 ------- 0 8.0 24.0 0 7
+ 0 9 12 cbr 1000 ------- 0 9.0 25.0 0 8
- 0 9 12 cbr 1000 ------- 0 9.0 25.0 0 8
+ 0 10 12 cbr 1000 ------- 0 10.0 26.0 0 9
- 0 10 12 cbr 1000 ------- 0 10.0 26.0 0 9
+ 0 11 12 cbr 1000 ------- 0 11.0 27.0 0 10
- 0 11 12 cbr 1000 ------- 0 11.0 27.0 0 10
+ 0.005 7 12 cbr 1000 ------- 0 7.0 23.0 1 11
- 0.005 7 12 cbr 1000 ------- 0 7.0 23.0 1 11
+ 0.005 8 12 cbr 1000 ------- 0 8.0 24.0 1 12
- 0.005 8 12 cbr 1000 ------- 0 8.0 24.0 1 12
+ 0.005 9 12 cbr 1000 ------- 0 9.0 25.0 1 13
- 0.005 9 12 cbr 1000 ------- 0 9.0 25.0 1 13
+ 0.005 10 12 cbr 1000 ------- 0 10.0 26.0 1 14
- 0.005 10 12 cbr 1000 ------- 0 10.0 26.0 1 14
+ 0.005 11 12 cbr 1000 ------- 0 11.0 27.0 1 15
- 0.005 11 12 cbr 1000 ------- 0 11.0 27.0 1 15
+ 0.01 7 12 cbr 1000 ------- 0 7.0 23.0 2 16
- 0.01 7 12 cbr 1000 ------- 0 7.0 23.0 2 16
+ 0.01 8 12 cbr 1000 ------- 0 8.0 24.0 2 17
- 0.01 8 12 cbr 1000 ------- 0 8.0 24.0 2 17
+ 0.01 9 12 cbr 1000 ------- 0 9.0 25.0 2 18
- 0.01 9 12 cbr 1000 ------- 0 9.0 25.0 2 18
+ 0.01 10 12 cbr 1000 ------- 0 10.0 26.0 2 19
- 0.01 10 12 cbr 1000 ------- 0 10.0 26.0 2 19
+ 0.01 11 12 cbr 1000 ------- 0 11.0 27.0 2 20
- 0.01 11 12 cbr 1000 ------- 0 11.0 27.0 2 20
r 0.010003 0 6 tcp 40 ------- 1 0.0 16.0 0 0
+ 0.010003 6 13 tcp 40 ------- 1 0.0 16.0 0 0
- 0.010003 6 13 tcp 40 ------- 1 0.0 16.0 0 0
r 0.010003 1 6 tcp 40 ------- 2 1.0 17.0 0 1
+ 0.010003 6 13 tcp 40 ------- 2 1.0 17.0 0 1
r 0.010003 2 6 tcp 40 ------- 3 2.0 18.0 0 2
+ 0.010003 6 13 tcp 40 ------- 3 2.0 18.0 0 2
r 0.010003 4 6 tcp 40 ------- 5 4.0 20.0 0 4
+ 0.010003 6 13 tcp 40 ------- 5 4.0 20.0 0 4
r 0.010003 5 6 tcp 40 ------- 6 5.0 21.0 0 5
+ 0.010003 6 13 tcp 40 ------- 6 5.0 21.0 0 5
- 0.010006 6 13 tcp 40 ------- 2 1.0 17.0 0 1
- 0.01001 6 13 tcp 40 ------- 3 2.0 18.0 0 2
- 0.010013 6 13 tcp 40 ------- 5 4.0 20.0 0 4
- 0.010016 6 13 tcp 40 ------- 6 5.0 21.0 0 5
r 0.01008 7 12 cbr 1000 ------- 0 7.0 23.0 0 6
+ 0.01008 12 13 cbr 1000 ------- 0 7.0 23.0 0 6
- 0.01008 12 13 cbr 1000 ------- 0 7.0 23.0 0 6
r 0.01008 8 12 cbr 1000 ------- 0 8.0 24.0 0 7
+ 0.01008 12 13 cbr 1000 ------- 0 8.0 24.0 0 7
r 0.01008 9 12 cbr 1000 ------- 0 9.0 25.0 0 8
+ 0.01008 12 13 cbr 1000 ------- 0 9.0 25.0 0 8
r 0.01008 10 12 cbr 1000 ------- 0 10.0 26.0 0 9
+ 0.01008 12 13 cbr 1000 ------- 0 10.0 26.0 0 9
r 0.01008 11 12 cbr 1000 ------- 0 11.0 27.0 0 10
+ 0.01008 12 13 cbr 1000 ------- 0 11.0 27.0 0 10
- 0.01016 12 13 cbr 1000 ------- 0 8.0 24.0 0 7
- 0.01024 12 13 cbr 1000 ------- 0 9.0 25.0 0 8
- 0.01032 12 13 cbr 1000 ------- 0 10.0 26.0 0 9
r 0.0104 3 6 tcp 5000 ------- 4 3.0 19.0 0 3
+ 0.0104 6 13 tcp 5000 ------- 4 3.0 19.0 0 3
- 0.0104 6 13 tcp 5000 ------- 4 3.0 19.0 0 3
- 0.0104 12 13 cbr 1000 ------- 0 11.0 27.0 0 10
+ 0.015 7 12 cbr 1000 ------- 0 7.0 23.0 3 21
- 0.015 7 12 cbr 1000 ------- 0 7.0 23.0 3 21
+ 0.015 8 12 cbr 1000 ------- 0 8.0 24.0 3 22
- 0.015 8 12 cbr 1000 ------- 0 8.0 24.0 3 22
+ 0.015 9 12 cbr 1000 ------- 0 9.0 25.0 3 23
- 0.015 9 12 cbr 1000 ------- 0 9.0 25.0 3 23
+ 0.015 10 12 cbr 1000 ------- 0 10.0 26.0 3 24
- 0.015 10 12 cbr 1000 ------- 0 10.0 26.0 3 24
+ 0.015 11 12 cbr 1000 ------- 0 11.0 27.0 3 25
- 0.015 11 12 cbr 1000 ------- 0 11.0 27.0 3 25
r 0.01508 7 12 cbr 1000 ------- 0 7.0 23.0 1 11
+ 0.01508 12 13 cbr 1000 ------- 0 7.0 23.0 1 11
- 0.01508 12 13 cbr 1000 ------- 0 7.0 23.0 1 11
r 0.01508 8 12 cbr 1000 ------- 0 8.0 24.0 1 12
+ 0.01508 12 13 cbr 1000 ------- 0 8.0 24.0 1 12
r 0.01508 9 12 cbr 1000 ------- 0 9.0 25.0 1 13
+ 0.01508 12 13 cbr 1000 ------- 0 9.0 25.0 1 13
r 0.01508 10 12 cbr 1000 ------- 0 10.0 26.0 1 14
+ 0.01508 12 13 cbr 1000 ------- 0 10.0 26.0 1 14
r 0.01508 11 12 cbr 1000 ------- 0 11.0 27.0 1 15
+ 0.01508 12 13 cbr 1000 ------- 0 11.0 27.0 1 15
- 0.01516 12 13 cbr 1000 ------- 0 8.0 24.0 1 12
- 0.01524 12 13 cbr 1000 ------- 0 9.0 25.0 1 13
- 0.01532 12 13 cbr 1000 ------- 0 10.0 26.0 1 14
- 0.0154 12 13 cbr 1000 ------- 0 11.0 27.0 1 15
+ 0.02 7 12 cbr 1000 ------- 0 7.0 23.0 4 26
- 0.02 7 12 cbr 1000 ------- 0 7.0 23.0 4 26
+ 0.02 8 12 cbr 1000 ------- 0 8.0 24.0 4 27
- 0.02 8 12 cbr 1000 ------- 0 8.0 24.0 4 27
+ 0.02 9 12 cbr 1000 ------- 0 9.0 25.0 4 28
- 0.02 9 12 cbr 1000 ------- 0 9.0 25.0 4 28
+ 0.02 10 12 cbr 1000 ------- 0 10.0 26.0 4 29
- 0.02 10 12 cbr 1000 ------- 0 10.0 26.0 4 29
+ 0.02 11 12 cbr 1000 ------- 0 11.0 27.0 4 30
- 0.02 11 12 cbr 1000 ------- 0 11.0 27.0 4 30
r 0.020006 6 13 tcp 40 ------- 1 0.0 16.0 0 0
+ 0.020006 13 14 tcp 40 ------- 1 0.0 16.0 0 0
